    2
Geometry Step: 6
    N     -7.71595017      0.91722533     -0.00000000      5.00000000
    N     -6.62536983      0.96493467      0.00000000      5.00000000
