   13
Geometry Step: 41
    C     -0.93615527      2.84795212      0.00000000      3.49948105
    C      0.25222723      1.97347518      0.00000000      4.18422788
    C      0.12645887      0.62777444     -0.00000000      3.96716725
    N     -1.14157714      0.01953635      0.00000000      5.16346859
    C     -2.27388133      0.76986706     -0.00000000      3.45252722
    N     -2.20625679      2.10974109     -0.00000000      5.21313693
    O     -0.97047243      4.05535964     -0.00000000      6.38252899
    O     -3.46610812      0.21527798     -0.00000000      6.37734121
    H      1.23484222      2.43348025      0.00000000      0.83065755
    H      0.96805734     -0.05954225     -0.00000000      0.85282418
    H     -1.20017817     -0.99767172      0.00000000      0.74862052
    H     -3.07500870      2.65139769      0.00000000      0.71592628
    H     -3.49662773     -0.75330782     -0.00000000      0.61209235
