    9
Geometry Step: 108
    C     -6.21044155      2.40529440      0.00699541      4.23775567
    C     -4.73940764      2.66165519      0.04425309      4.04608264
    H     -6.67579775      2.94820456     -0.81669447      0.91184320
    H     -6.68531587      2.75394853      0.92514015      0.91151301
    H     -6.42798348      1.34689757     -0.11196176      0.91214561
    C     -3.80683380      1.71310945     -0.04216503      4.28119600
    H     -4.43710060      3.70335743      0.15140138      0.91515492
    H     -4.07458066      0.66890971     -0.14925103      0.89049275
    H     -2.75272866      1.95680317     -0.00772774      0.89381621
